% Model:              Untitled.mph
% Version:            COMSOL 5.6.0.341
% Date:               May 16 2023, 13:50
% Dimension:          2
% Nodes:              47
% Expressions:        1
% Description:        
% Length unit:        m
% X                       Y                        abs(u) (mm) @ freq=1
0                         0                        9.775144438063792E-11
0.003                     0                        5.1143007121866E-9
0.006                     0                        2.2506752115225457E-9
0.009000000000000001      0                        3.866695436617728E-9
0.012                     0                        2.404905090066325E-9
0.015                     0                        3.3972806974725007E-9
0.018000000000000002      0                        2.4808900676108842E-9
0.021                     0                        3.169083791941208E-9
0.024                     0                        2.467486113226519E-9
0.027                     0                        2.963525887807749E-9
0.03                      0                        2.4412790809001447E-9
0.033                     0                        2.759671585502536E-9
0.036000000000000004      0                        2.34205758606714E-9
0.039                     0                        2.49561087936217E-9
0.042                     0                        2.2869896556242604E-9
0.045                     0                        2.3232723251669332E-9
0.048                     0                        2.157587189106697E-9
0.051000000000000004      0                        2.1235081006399277E-9
0.054                     0                        2.1092693115529635E-9
0.057                     0                        2.0431594249424576E-9
0.06                      0                        2.0583504578238053E-9
0.063                     0                        1.953340106734291E-9
0.066                     0                        2.0322481676942678E-9
0.069                     0                        1.9729142811415783E-9
0.07200000000000001       0                        2.0465697599672805E-9
0.075                     0                        1.945009429826678E-9
0.078                     0                        2.0439791705054607E-9
0.081                     0                        2.040277849052941E-9
0.084                     0                        2.0767228926745687E-9
0.08700000000000001       0                        2.0455166600850844E-9
0.09                      0                        2.065614224567144E-9
0.093                     0                        2.1041143469649633E-9
0.096                     0                        2.085307193989632E-9
0.099                     0                        2.114690296107691E-9
0.10200000000000001       0                        2.0862278156054764E-9
0.105                     0                        2.129163741988939E-9
0.108                     0                        2.0917118400892916E-9
0.111                     0                        2.1270031769753143E-9
0.114                     0                        2.0823842046054167E-9
0.117                     0                        2.115522345170737E-9
0.12                      0                        2.0832231485544203E-9
0.123                     0                        2.1004400191655244E-9
0.126                     0                        2.068931465635554E-9
0.129                     0                        2.086092585717569E-9
0.132                     0                        2.0459373982157487E-9
0.135                     0                        2.008969302307902E-9
0.138                     0                        2.1938762080971423E-9
