% Model:              Untitled.mph
% Version:            COMSOL 5.6.0.341
% Date:               May 12 2023, 12:15
% Dimension:          2
% Nodes:              47
% Expressions:        1
% Description:        
% Length unit:        m
% X                       Y                        abs(v) (mm) @ freq=2E5
0                         0                        3.375345997123844E-8
0.003                     0                        8.374387741716504E-9
0.006                     0                        6.812848093933286E-9
0.009000000000000001      0                        6.256368212398208E-9
0.012                     0                        5.841819355464357E-9
0.015                     0                        5.42849597129518E-9
0.018000000000000002      0                        5.040384219915879E-9
0.021                     0                        4.8058816616317605E-9
0.024                     0                        4.8199427073635166E-9
0.027                     0                        5.0538542263669106E-9
0.03                      0                        5.40945153269081E-9
0.033                     0                        5.719908388408853E-9
0.036000000000000004      0                        5.903366405239964E-9
0.039                     0                        5.902192225272014E-9
0.042                     0                        5.733096285865506E-9
0.045                     0                        5.48114213338999E-9
0.048                     0                        5.234798639009393E-9
0.051000000000000004      0                        5.129996908610277E-9
0.054                     0                        5.2004486257105404E-9
0.057                     0                        5.422539564544739E-9
0.06                      0                        5.6990302671770035E-9
0.063                     0                        5.914525999809569E-9
0.066                     0                        6.023716027523168E-9
0.069                     0                        5.983967727686776E-9
0.07200000000000001       0                        5.846532669085946E-9
0.075                     0                        5.672110820955105E-9
0.078                     0                        5.5392436110334825E-9
0.081                     0                        5.528564554501008E-9
0.084                     0                        5.624094402979405E-9
0.08700000000000001       0                        5.805149332535708E-9
0.09                      0                        5.9789239693901805E-9
0.093                     0                        6.0890438798390474E-9
0.096                     0                        6.110948769885724E-9
0.099                     0                        6.030816733153498E-9
0.10200000000000001       0                        5.916023518299865E-9
0.105                     0                        5.8000284129684746E-9
0.108                     0                        5.750966294067355E-9
0.111                     0                        5.789910752908752E-9
0.114                     0                        5.884916445644886E-9
0.117                     0                        6.013910224493677E-9
0.12                      0                        6.098377219356773E-9
0.123                     0                        6.128684429220223E-9
0.126                     0                        6.089446902095532E-9
0.129                     0                        5.9979619097325314E-9
0.132                     0                        5.913907998951696E-9
0.135                     0                        5.8514778191903436E-9
0.138                     0                        5.860845917009206E-9
