% Model:              Untitled.mph
% Version:            COMSOL 5.6.0.341
% Date:               May 16 2023, 13:50
% Dimension:          2
% Nodes:              47
% Expressions:        1
% Description:        
% Length unit:        m
% X                       Y                        abs(v) (mm) @ freq=1
0                         0                        2.0712797514279902E-8
0.003                     0                        3.2030214649462057E-9
0.006                     0                        3.008506367813305E-9
0.009000000000000001      0                        3.364825308357551E-9
0.012                     0                        3.5696276339253742E-9
0.015                     0                        3.871676675041068E-9
0.018000000000000002      0                        4.098236055907722E-9
0.021                     0                        4.311330639592599E-9
0.024                     0                        4.545600538885204E-9
0.027                     0                        4.554541815261591E-9
0.03                      0                        4.779956747630167E-9
0.033                     0                        4.738140277639317E-9
0.036000000000000004      0                        4.917941011072318E-9
0.039                     0                        4.885375986580301E-9
0.042                     0                        4.987589511289646E-9
0.045                     0                        4.896543918599191E-9
0.048                     0                        5.020171125164169E-9
0.051000000000000004      0                        4.911213259702279E-9
0.054                     0                        4.949278873001721E-9
0.057                     0                        4.838450219745694E-9
0.06                      0                        4.8546145867261565E-9
0.063                     0                        4.787079905992128E-9
0.066                     0                        4.7545911153388904E-9
0.069                     0                        4.656637060603144E-9
0.07200000000000001       0                        4.613582296735256E-9
0.075                     0                        4.566165584056703E-9
0.078                     0                        4.460276843076187E-9
0.081                     0                        4.415465145824927E-9
0.084                     0                        4.313461111200669E-9
0.08700000000000001       0                        4.261273465299496E-9
0.09                      0                        4.135816304445127E-9
0.093                     0                        4.100290878136278E-9
0.096                     0                        4.001942900941516E-9
0.099                     0                        3.940014447199126E-9
0.10200000000000001       0                        3.839486716020983E-9
0.105                     0                        3.78997392810446E-9
0.108                     0                        3.7023673327435792E-9
0.111                     0                        3.6313797830558965E-9
0.114                     0                        3.596497530540334E-9
0.117                     0                        3.5560451946500424E-9
0.12                      0                        3.5436940030366928E-9
0.123                     0                        3.5126604350782353E-9
0.126                     0                        3.54128457594876E-9
0.129                     0                        3.52546156655816E-9
0.132                     0                        3.5226868201152025E-9
0.135                     0                        3.5103743497886375E-9
0.138                     0                        3.591774749889444E-9
