% Model:              Untitled.mph
% Version:            COMSOL 5.6.0.341
% Date:               May 12 2023, 11:25
% Dimension:          2
% Nodes:              47
% Expressions:        1
% Description:        
% Length unit:        m
% X                       Y                        abs(u) (mm) @ freq=2E5
0                         0                        4.868439363851201E-13
0.003                     0                        3.366017679753602E-9
0.006                     0                        4.05090303534358E-9
0.009000000000000001      0                        4.755594835753691E-9
0.012                     0                        5.253715015088648E-9
0.015                     0                        5.40959809118738E-9
0.018000000000000002      0                        5.1950478453161716E-9
0.021                     0                        4.627963695114374E-9
0.024                     0                        3.797299962380132E-9
0.027                     0                        2.8991750844098863E-9
0.03                      0                        2.27246905813754E-9
0.033                     0                        2.356774360158683E-9
0.036000000000000004      0                        2.987978962555329E-9
0.039                     0                        3.7040950434995765E-9
0.042                     0                        4.233291286930163E-9
0.045                     0                        4.461526076098651E-9
0.048                     0                        4.379817709428248E-9
0.051000000000000004      0                        4.020545931015571E-9
0.054                     0                        3.510817013622215E-9
0.057                     0                        3.0390073208881665E-9
0.06                      0                        2.8386771130064232E-9
0.063                     0                        3.0293136390762E-9
0.066                     0                        3.4481248483064426E-9
0.069                     0                        3.88356901207797E-9
0.07200000000000001       0                        4.166539230697899E-9
0.075                     0                        4.235740030553313E-9
0.078                     0                        4.095613540125523E-9
0.081                     0                        3.798783319088074E-9
0.084                     0                        3.4791848876140695E-9
0.08700000000000001       0                        3.2683840415316995E-9
0.09                      0                        3.2816810853770235E-9
0.093                     0                        3.4943389405048875E-9
0.096                     0                        3.779879296772964E-9
0.099                     0                        4.022416820625673E-9
0.10200000000000001       0                        4.125012112534192E-9
0.105                     0                        4.080589032172728E-9
0.108                     0                        3.910065157053103E-9
0.111                     0                        3.687733499056356E-9
0.114                     0                        3.5215703859141188E-9
0.117                     0                        3.475625785437424E-9
0.12                      0                        3.580583540390014E-9
0.123                     0                        3.7606169035116266E-9
0.126                     0                        3.934537020086818E-9
0.129                     0                        4.034834457699116E-9
0.132                     0                        4.020234650372978E-9
0.135                     0                        3.918921590303044E-9
0.138                     0                        3.764424607193488E-9
